34
Lattice="10.2106219203 0.0 0.0 5.10531096017 8.84265797145 0.0 0.0 0.0 22.0842344718" Properties=species:S:1:pos:R:3:Z:I:1:tags:I:1:forces:R:3 energy=11.6252149123 pbc="T T F"
Cu     -0.00000000       1.47377633      10.00000000       29        2      -0.00000000       0.00474391       0.15406672 
Cu      2.55265548       1.47377633      10.00000000       29        2       0.00027071       0.00015629       0.16024858 
Cu      5.10531096       1.47377633      10.00000000       29        2       0.00000000       0.00000597       0.16066314 
Cu      7.65796644       1.47377633      10.00000000       29        2      -0.00027071       0.00015629       0.16024858 
Cu      1.27632774       3.68444082      10.00000000       29        2       0.00001699       0.00016858       0.16046370 
Cu      3.82898322       3.68444082      10.00000000       29        2       0.00000517      -0.00000299       0.16066314 
Cu      6.38163870       3.68444082      10.00000000       29        2      -0.00000517      -0.00000299       0.16066314 
Cu      8.93429418       3.68444082      10.00000000       29        2      -0.00001699       0.00016858       0.16046370 
Cu      2.55265548       5.89510531      10.00000000       29        2      -0.00013750      -0.00009900       0.16046370 
Cu      5.10531096       5.89510531      10.00000000       29        2       0.00000000      -0.00031259       0.16024858 
Cu      7.65796644       5.89510531      10.00000000       29        2       0.00013750      -0.00009900       0.16046370 
Cu     10.21062192       5.89510531      10.00000000       29        2       0.00000000      -0.00000000       0.16067067 
Cu      3.82898322       8.10576981      10.00000000       29        2      -0.00410835      -0.00237195       0.15406672 
Cu      6.38163870       8.10576981      10.00000000       29        2       0.00410835      -0.00237195       0.15406672 
Cu      8.93429418       8.10576981      10.00000000       29        2       0.00015449      -0.00006958       0.16046370 
Cu     11.48694966       8.10576981      10.00000000       29        2      -0.00015449      -0.00006958       0.16046370 
Cu      0.00000000       0.00000000      12.08423447       29        1      -0.00000000      -0.00000000      -0.21915203 
Cu      2.55265548       0.00000000      12.08423447       29        1      -0.00546621       0.00000139      -0.14698219 
Cu      5.10531096       0.00000000      12.08423447       29        1       0.00000000      -0.00000002      -0.16065653 
Cu      7.65796644       0.00000000      12.08423447       29        1       0.00546621       0.00000139      -0.14698219 
Cu      1.27632774       2.21066449      12.08423447       29        1      -0.00273190      -0.00473457      -0.14698219 
Cu      3.82898322       2.21066449      12.08423447       29        1      -0.00004529      -0.00002615      -0.16040181 
Cu      6.38163870       2.21066449      12.08423447       29        1       0.00004529      -0.00002615      -0.16040181 
Cu      8.93429418       2.21066449      12.08423447       29        1       0.00273190      -0.00473457      -0.14698219 
Cu      2.55265548       4.42132899      12.08423447       29        1      -0.00000001       0.00000001      -0.16065653 
Cu      5.10531096       4.42132899      12.08423447       29        1       0.00000000       0.00005230      -0.16040181 
Cu      7.65796644       4.42132899      12.08423447       29        1       0.00000001       0.00000001      -0.16065653 
Cu     10.21062192       4.42132899      12.08423447       29        1      -0.00000000      -0.00005257      -0.16040232 
Cu      3.82898322       6.63199348      12.08423447       29        1       0.00273431       0.00473318      -0.14698219 
Cu      6.38163870       6.63199348      12.08423447       29        1      -0.00273431       0.00473318      -0.14698219 
Cu      8.93429418       6.63199348      12.08423447       29        1      -0.00004553       0.00002628      -0.16040232 
Cu     11.48694966       6.63199348      12.08423447       29        1       0.00004553       0.00002628      -0.16040232 
N     -0.00000000       0.00000000      14.14285112        7        0      -0.00000000      -0.00000000       0.00949453 
N      0.00000000      -0.00000000      15.19007575        7        0      -0.00000000      -0.00000000      -0.01245557 
